/*--------------------------------*- C++ -*----------------------------------*\
| =========                 |                                                 |
| \\      /  F ield         | OpenFOAM: The Open Source CFD Toolbox           |
|  \\    /   O peration     | Version:  2106                                  |
|   \\  /    A nd           | Website:  www.openfoam.com                      |
|    \\/     M anipulation  |                                                 |
\*---------------------------------------------------------------------------*/
FoamFile
{
    version     2.0;
    format      ascii;
    arch        "LSB;label=32;scalar=64";
    class       volVectorField;
    location    "0";
    object      Ulift0;
}
// * * * * * * * * * * * * * * * * * * * * * * * * * * * * * * * * * * * * * //

dimensions      [0 1 -1 0 0 0 0];

internalField   nonuniform List<vector> 
11644
(
(1.00126 -0.000928661 0)
(1.00126 -0.00278234 0)
(1.00125 -0.00462432 0)
(1.00123 -0.00644415 0)
(1.0012 -0.00822733 0)
(1.00115 -0.00995367 0)
(1.00108 -0.0115955 0)
(1.00099 -0.0131163 0)
(1.00085 -0.0144691 0)
(1.00068 -0.0155962 0)
(1.00045 -0.0164299 0)
(1.00018 -0.0168949 0)
(0.999847 -0.0169131 0)
(0.999471 -0.0164122 0)
(0.999064 -0.015335 0)
(0.998648 -0.0136524 0)
(0.998255 -0.0113749 0)
(0.997919 -0.00856158 0)
(0.997674 -0.00532148 0)
(0.997544 -0.00180573 -1.13958e-32)
(0.997544 0.00180541 6.70221e-31)
(0.997674 0.00532118 0)
(0.997919 0.00856131 0)
(0.998255 0.0113746 0)
(0.998648 0.0136522 0)
(0.999064 0.0153349 0)
(0.999471 0.016412 0)
(0.999847 0.0169131 0)
(1.00018 0.0168948 0)
(1.00045 0.0164299 0)
(1.00068 0.0155962 0)
(1.00085 0.0144691 0)
(1.00099 0.0131163 0)
(1.00108 0.0115956 0)
(1.00115 0.0099537 0)
(1.0012 0.00822737 0)
(1.00123 0.00644418 0)
(1.00125 0.00462435 0)
(1.00126 0.00278236 0)
(1.00126 0.000928665 0)
(1.0038 -0.000935388 0)
(1.00379 -0.00280399 0)
(1.00376 -0.0046653 0)
(1.0037 -0.00651192 0)
(1.00362 -0.00833248 0)
(1.00349 -0.0101099 0)
(1.0033 -0.0118195 0)
(1.00302 -0.013427 0)
(1.00264 -0.0148864 0)
(1.00213 -0.0161389 0)
(1.00146 -0.017112 0)
(1.00063 -0.017721 0)
(0.999627 -0.0178736 0)
(0.998472 -0.0174778 0)
(0.997207 -0.0164548 0)
(0.995902 -0.0147529 0)
(0.994657 -0.0123657 0)
(0.993591 -0.00935101 0)
(0.992809 -0.00583134 0)
(0.992393 -0.00198216 5.00367e-32)
(0.992393 0.00198181 -2.94282e-30)
(0.992809 0.00583101 0)
(0.993591 0.00935072 0)
(0.994656 0.0123655 0)
(0.995902 0.0147527 0)
(0.997207 0.0164547 0)
(0.998472 0.0174777 0)
(0.999627 0.0178735 0)
(1.00063 0.017721 0)
(1.00146 0.017112 0)
(1.00213 0.0161389 0)
(1.00264 0.0148864 0)
(1.00302 0.013427 0)
(1.0033 0.0118196 0)
(1.00349 0.01011 0)
(1.00362 0.00833252 0)
(1.0037 0.00651196 0)
(1.00376 0.00466533 0)
(1.00379 0.002804 0)
(1.0038 0.000935393 0)
(1.00636 -0.000946139 0)
(1.00634 -0.00283911 0)
(1.00631 -0.00473347 0)
(1.00624 -0.00662789 0)
(1.00613 -0.00851741 0)
(1.00595 -0.0103916 0)
(1.00567 -0.0122324 0)
(1.00526 -0.0140114 0)
(1.00467 -0.0156865 0)
(1.00386 -0.0171984 0)
(1.00278 -0.0184675 0)
(1.0014 -0.0193916 0)
(0.999689 -0.0198481 0)
(0.997676 -0.0197035 0)
(0.995425 -0.0188304 0)
(0.993045 -0.017121 0)
(0.990726 -0.0145172 0)
(0.98874 -0.0110744 0)
(0.987265 -0.00695065 0)
(0.986474 -0.0023709 1.197e-31)
(0.986474 0.0023705 -7.03999e-30)
(0.987265 0.00695027 0)
(0.98874 0.0110741 0)
(0.990726 0.0145169 0)
(0.993045 0.0171208 0)
(0.995424 0.0188303 0)
(0.997675 0.0197034 0)
(0.999689 0.0198481 0)
(1.0014 0.0193916 0)
(1.00278 0.0184675 0)
(1.00386 0.0171984 0)
(1.00467 0.0156865 0)
(1.00526 0.0140115 0)
(1.00567 0.0122325 0)
(1.00595 0.0103917 0)
(1.00613 0.00851746 0)
(1.00624 0.00662793 0)
(1.00631 0.0047335 0)
(1.00634 0.00283912 0)
(1.00636 0.000946145 0)
(1.00894 -0.000955618 0)
(1.00894 -0.00287164 0)
(1.00891 -0.00480154 0)
(1.00887 -0.00675293 0)
(1.00877 -0.00873065 0)
(1.00859 -0.0107351 0)
(1.00829 -0.0127598 0)
(1.00782 -0.0147881 0)
(1.00711 -0.0167882 0)
(1.00609 -0.018707 0)
(1.00467 -0.0204611 0)
(1.00276 -0.0219269 0)
(1.00031 -0.0229344 0)
(0.997319 -0.0232768 0)
(0.993881 -0.0227526 0)
(0.990076 -0.0211435 0)
(0.986178 -0.0182205 0)
(0.982943 -0.0140573 0)
(0.980458 -0.00891335 0)
(0.97909 -0.00305866 0)
(0.97909 0.00305816 0)
(0.980458 0.00891289 0)
(0.982943 0.0140569 0)
(0.986178 0.0182202 0)
(0.990075 0.0211433 0)
(0.99388 0.0227525 0)
(0.997319 0.0232768 0)
(1.00031 0.0229344 0)
(1.00276 0.0219269 0)
(1.00467 0.0204611 0)
(1.00609 0.0187071 0)
(1.00711 0.0167883 0)
(1.00782 0.0147882 0)
(1.00829 0.0127599 0)
(1.00859 0.0107352 0)
(1.00877 0.00873071 0)
(1.00887 0.00675298 0)
(1.00891 0.00480158 0)
(1.00894 0.00287166 0)
(1.00894 0.000955625 0)
(1.01154 -0.000956247 0)
(1.01156 -0.00287849 0)
(1.01157 -0.00482986 0)
(1.01158 -0.00682926 0)
(1.01155 -0.00889447 0)
(1.01145 -0.0110411 0)
(1.01123 -0.0132805 0)
(1.01082 -0.0156167 0)
(1.01013 -0.0180405 0)
(1.00905 -0.0205205 0)
(1.00744 -0.0229878 0)
(1.00514 -0.0253097 0)
(1.00195 -0.027251 0)
(0.997783 -0.028453 0)
(0.993014 -0.0286815 0)
(0.987278 -0.0275964 0)
(0.980406 -0.0242176 0)
(0.975759 -0.0188539 0)
(0.971584 -0.0121907 0)
(0.969177 -0.00423126 4.27249e-31)
(0.969177 0.00423059 -2.51283e-29)
(0.971584 0.0121901 0)
(0.975759 0.0188535 0)
(0.980405 0.0242172 0)
(0.987277 0.0275962 0)
(0.993014 0.0286814 0)
(0.997783 0.028453 0)
(1.00195 0.0272511 0)
(1.00514 0.0253098 0)
(1.00744 0.0229879 0)
(1.00905 0.0205206 0)
(1.01013 0.0180406 0)
(1.01082 0.0156168 0)
(1.01123 0.0132806 0)
(1.01145 0.0110412 0)
(1.01155 0.00889455 0)
(1.01158 0.00682932 0)
(1.01157 0.00482991 0)
(1.01156 0.00287852 0)
(1.01154 0.000956256 0)
(1.01412 -0.000938837 0)
(1.01417 -0.00283148 0)
(1.01425 -0.00476937 0)
(1.01436 -0.00678384 0)
(1.01447 -0.00890771 0)
(1.01454 -0.0111754 0)
(1.01451 -0.0136224 0)
(1.01432 -0.0162833 0)
(1.01387 -0.0191886 0)
(1.01299 -0.0223575 0)
(1.01151 -0.0257834 0)
(1.00914 -0.0293966 0)
(1.0054 -0.032935 0)
(0.99936 -0.0354297 0)
(0.993939 -0.0370399 0)
(0.98658 -0.0382916 0)
(0.970516 -0.0338858 0)
(0.967704 -0.0260543 0)
(0.959441 -0.0178657 0)
(0.95481 -0.00633307 1.27895e-30)
(0.95481 0.00633211 -7.52211e-29)
(0.959441 0.0178649 0)
(0.967703 0.0260537 0)
(0.970515 0.0338854 0)
(0.98658 0.0382915 0)
(0.993938 0.0370399 0)
(0.999359 0.0354299 0)
(1.0054 0.0329352 0)
(1.00914 0.0293969 0)
(1.01151 0.0257836 0)
(1.01299 0.0223577 0)
(1.01387 0.0191888 0)
(1.01432 0.0162835 0)
(1.01451 0.0136225 0)
(1.01454 0.0111755 0)
(1.01447 0.00890781 0)
(1.01436 0.00678392 0)
(1.01425 0.00476943 0)
(1.01417 0.00283151 0)
(1.01412 0.000938847 0)
(1.01661 -0.000893749 0)
(1.01671 -0.00270076 0)
(1.01689 -0.00456725 0)
(1.01714 -0.00653609 0)
(1.01745 -0.00865494 0)
(1.01779 -0.0109782 0)
(1.01811 -0.0135684 0)
(1.01833 -0.0164979 0)
(1.01837 -0.0198494 0)
(1.01807 -0.023719 0)
(1.01724 -0.0282323 0)
(1.01566 -0.0336221 0)
(1.01312 -0.0405495 0)
(0.999788 -0.0440424 0)
(0.998446 -0.0460613 0)
(0.986459 -0.0480345 0)
(0.957791 -0.0488657 0)
(0.962073 -0.0437112 0)
(0.949029 -0.0309905 0)
(0.940536 -0.0138972 -9.78212e-26)
(0.93911 0.00496135 0)
(0.945249 0.0179938 8.00645e-21)
(0.957212 0.0378333 0)
(0.9727 0.0508014 0)
(0.986458 0.0480345 0)
(0.998445 0.0460615 0)
(0.999787 0.0440428 0)
(1.01312 0.0405499 0)
(1.01566 0.0336225 0)
(1.01724 0.0282327 0)
(1.01807 0.0237193 0)
(1.01837 0.0198497 0)
(1.01833 0.0164981 0)
(1.01811 0.0135686 0)
(1.01779 0.0109783 0)
(1.01745 0.00865505 0)
(1.01714 0.00653617 0)
(1.01689 0.00456731 0)
(1.01671 0.00270079 0)
(1.01661 0.00089376 0)
(1.01893 -0.000812577 0)
(1.01908 -0.00246001 0)
(1.01938 -0.00417582 0)
(1.01982 -0.00601086 0)
(1.0204 -0.00802418 0)
(1.02109 -0.010287 0)
(1.02187 -0.012887 0)
(1.0227 -0.015932 0)
(1.02348 -0.019552 0)
(1.02411 -0.0238898 0)
(1.02437 -0.0290602 0)
(1.02394 -0.0350036 0)
(1.0224 -0.040996 0)
(0.996549 -0.0498655 0)
(1.00605 -0.0600607 0)
(0.990982 -0.0666911 0)
(0.973521 -0.0695837 0)
(0.950581 -0.0669821 0)
(0.925855 -0.0524665 0)
(0.907249 -0.0208012 1.43301e-25)
(0.902993 0.00871175 0)
(0.915213 0.0394907 2.67027e-25)
(0.938053 0.0613679 0)
(0.962605 0.0695299 0)
(0.983814 0.0691261 0)
(1.00187 0.063168 0)
(1.01429 0.059107 0)
(1.0224 0.0409967 0)
(1.02394 0.0350042 0)
(1.02437 0.0290607 0)
(1.02411 0.0238901 0)
(1.02348 0.0195523 0)
(1.0227 0.0159323 0)
(1.02187 0.0128871 0)
(1.02109 0.0102872 0)
(1.0204 0.0080243 0)
(1.01982 0.00601094 0)
(1.01938 0.00417588 0)
(1.01908 0.00246004 0)
(1.01893 0.000812587 0)
(1.02098 -0.000690198 0)
(1.02119 -0.00209279 0)
(1.02161 -0.00356389 0)
(1.02225 -0.00515587 0)
(1.02312 -0.00693195 0)
(1.02422 -0.00897232 0)
(1.02555 -0.0113822 0)
(1.02713 -0.0143028 0)
(1.02891 -0.0179269 0)
(1.03083 -0.0225205 0)
(1.03275 -0.0284582 0)
(1.0343 -0.0362947 0)
(1.03471 -0.0469668 0)
(1.02797 -0.0564403 0)
(1.02355 -0.0724038 0)
(1.00368 -0.0869702 0)
(0.98481 -0.101629 0)
(0.947361 -0.107955 0)
(0.900409 -0.0963387 -7.50019e-23)
(0.858929 -0.0342901 0)
(0.845877 0.0084957 -3.30646e-24)
(0.870225 0.0472142 0)
(0.91604 0.101788 -2.42428e-23)
(0.961022 0.107256 0)
(0.996045 0.101171 0)
(1.01948 0.0820924 0)
(1.02635 0.0640346 0)
(1.03471 0.0469679 0)
(1.0343 0.0362955 0)
(1.03275 0.0284588 0)
(1.03083 0.0225209 0)
(1.02891 0.0179272 0)
(1.02713 0.0143031 0)
(1.02555 0.0113824 0)
(1.02422 0.00897247 0)
(1.02312 0.00693206 0)
(1.02225 0.00515595 0)
(1.02161 0.00356394 0)
(1.02119 0.00209282 0)
(1.02098 0.000690209 0)
(1.02263 -0.000526774 0)
(1.0229 -0.00159884 0)
(1.02344 -0.00272837 0)
(1.02427 -0.00396035 0)
(1.02541 -0.00535091 0)
(1.02691 -0.00697422 0)
(1.02881 -0.0089327 0)
(1.03116 -0.0113725 0)
(1.03406 -0.0145085 0)
(1.03758 -0.0186651 0)
(1.0418 -0.0243444 0)
(1.04678 -0.032341 0)
(1.05249 -0.0439181 0)
(1.05071 -0.056552 0)
(1.05211 -0.0793969 0)
(1.04032 -0.106338 0)
(1.01749 -0.141504 0)
(0.969572 -0.172002 0)
(0.877632 -0.194092 -5.92877e-22)
(0.763334 0.180411 0)
(0.711117 0.0101604 2.05025e-23)
(0.776403 -0.161327 -6.57618e-21)
(0.89141 0.195176 -5.85059e-24)
(0.977946 0.160263 0)
(1.02722 0.13506 0)
(1.05038 0.0944554 0)
(1.05189 0.0670624 0)
(1.05249 0.0439194 0)
(1.04678 0.0323418 0)
(1.0418 0.024345 0)
(1.03758 0.0186655 0)
(1.03406 0.0145088 0)
(1.03116 0.0113727 0)
(1.02881 0.00893286 0)
(1.02691 0.00697435 0)
(1.02541 0.005351 0)
(1.02427 0.00396042 0)
(1.02344 0.00272841 0)
(1.0229 0.00159887 0)
(1.02263 0.000526782 0)
(1.0238 -0.000329104 0)
(1.0241 -0.000998609 0)
(1.02473 -0.00170335 0)
(1.0257 -0.00247154 0)
(1.02705 -0.00333935 0)
(1.02886 -0.00435622 0)
(1.0312 -0.00559291 0)
(1.03421 -0.00715454 0)
(1.03807 -0.00920259 0)
(1.04302 -0.0119931 0)
(1.04946 -0.0159448 0)
(1.05792 -0.0217647 0)
(1.06923 -0.030685 0)
(1.07635 -0.0442683 0)
(1.09233 -0.069407 0)
(1.101 -0.105764 0)
(1.1034 -0.169625 1.32057e-22)
(1.07765 -0.168461 4.56503e-21)
(0.934393 -0.422325 -5.25605e-21)
(0.565752 6.18301 -7.28226e-24)
(0.274902 0.0194278 0)
(0.594087 -6.16821 -3.96661e-20)
(0.949241 0.414361 -6.80839e-24)
(1.08477 0.166844 2.29683e-21)
(1.11007 0.154385 6.00963e-23)
(1.10183 0.0871963 0)
(1.0838 0.0556897 0)
(1.06923 0.0306861 0)
(1.05792 0.0217653 0)
(1.04946 0.0159452 0)
(1.04302 0.0119934 0)
(1.03807 0.0092028 0)
(1.03421 0.0071547 0)
(1.0312 0.00559302 0)
(1.02886 0.00435631 0)
(1.02705 0.00333941 0)
(1.0257 0.00247158 0)
(1.02473 0.00170338 0)
(1.0241 0.000998626 0)
(1.0238 0.00032911 0)
(1.02439 -0.000110536 0)
(1.02472 -0.000333205 0)
(1.02538 -0.000560989 0)
(1.02641 -0.000798448 0)
(1.02786 -0.00105209 0)
(1.02981 -0.00133165 0)
(1.03237 -0.0016521 0)
(1.03569 -0.00203689 0)
(1.04003 -0.00252349 0)
(1.04574 -0.00317322 0)
(1.05336 -0.00408959 0)
(1.06378 -0.00545386 0)
(1.07841 -0.00759738 0)
(1.09488 -0.0163552 0)
(1.12492 -0.0294856 0)
(1.16381 -0.0544791 0)
(1.22829 -0.110348 -2.03341e-24)
(1.33599 0.72096 -1.04688e-24)
(1.50326 -0.665463 9.83527e-20)
(1.49588 -27.6274 -1.00444e-19)
(1.31998 0.222946 -2.14501e-24)
(1.21644 0.0922138 0)
(1.14629 0.0384608 0)
(1.10817 0.0226935 0)
(1.07841 0.00759759 0)
(1.06378 0.00545399 0)
(1.05336 0.00408969 0)
(1.04574 0.0031733 0)
(1.04003 0.00252355 0)
(1.03569 0.00203694 0)
(1.03237 0.00165214 0)
(1.02981 0.00133168 0)
(1.02786 0.00105211 0)
(1.02641 0.000798466 0)
(1.02538 0.000561004 0)
(1.02472 0.000333215 0)
(1.02439 0.000110538 0)
(1.02439 0.000110984 0)
(1.02471 0.000341662 0)
(1.02535 0.000599267 0)
(1.02635 0.000904565 0)
(1.02775 0.00128312 0)
(1.02964 0.00176857 0)
(1.0321 0.00240772 0)
(1.03531 0.00326905 0)
(1.03946 0.00445734 0)
(1.0449 0.00613978 0)
(1.05211 0.00859398 0)
(1.06185 0.0122983 0)
(1.07535 0.0181073 0)
(1.09493 0.0186286 0)
(1.12539 0.0271354 0)
(1.17383 0.0361333 0)
(1.2616 0.0541698 0)
(1.44813 0.108006 -6.72752e-22)
(1.99583 870.945 -1.2894e-19)
(1.93097 -0.305493 -1.23749e-19)
(1.43195 0.247055 0)
(1.2356 -0.0544922 0)
(1.14698 -0.0354939 0)
(1.10846 -0.0214756 0)
(1.07535 -0.0181082 0)
(1.06185 -0.0122988 0)
(1.05211 -0.00859428 0)
(1.0449 -0.00613996 0)
(1.03946 -0.00445745 0)
(1.03531 -0.00326912 0)
(1.0321 -0.00240776 0)
(1.02964 -0.00176859 0)
(1.02775 -0.00128314 0)
(1.02635 -0.000904569 0)
(1.02535 -0.000599269 0)
(1.02471 -0.000341663 0)
(1.02439 -0.000110983 0)
(1.02381 0.000316395 0)
(1.02409 0.000966723 0)
(1.02466 0.00167131 0)
(1.02554 0.00247208 0)
(1.02676 0.00342063 0)
(1.02839 0.0045845 0)
(1.03048 0.0060566 0)
(1.03315 0.00797026 0)
(1.03653 0.0105242 0)
(1.04079 0.0140253 0)
(1.04617 0.0189654 0)
(1.05298 0.0261574 0)
(1.06162 0.0369748 0)
(1.07644 0.0453321 0)
(1.09326 0.0677624 0)
(1.11972 0.0993341 0)
(1.15335 0.16225 0)
(1.17157 0.0928676 4.95851e-21)
(1.08885 0.586732 0)
(1.10345 8.32539 3.7257e-20)
(1.1721 -0.280015 0)
(1.14055 -0.147322 0)
(1.10317 -0.0854028 0)
(1.08438 -0.0546104 0)
(1.06162 -0.0369761 0)
(1.05298 -0.0261583 0)
(1.04617 -0.0189659 0)
(1.04079 -0.0140257 0)
(1.03653 -0.0105244 0)
(1.03315 -0.00797042 0)
(1.03048 -0.0060567 0)
(1.02839 -0.00458456 0)
(1.02676 -0.00342067 0)
(1.02554 -0.00247211 0)
(1.02466 -0.00167132 0)
(1.02409 -0.000966727 0)
(1.02381 -0.000316397 0)
(1.02272 0.000489365 0)
(1.02294 0.00149143 0)
(1.02339 0.00256546 0)
(1.02408 0.00376626 0)
(1.02503 0.00515988 0)
(1.02626 0.00683031 0)
(1.02781 0.00888877 0)
(1.02969 0.0114873 0)
(1.03195 0.0148389 0)
(1.0346 0.0192496 0)
(1.03758 0.0251716 0)
(1.04071 0.0333112 0)
(1.04341 0.044899 0)
(1.05056 0.0560709 0)
(1.05282 0.0784438 0)
(1.05464 0.108107 0)
(1.04464 0.155067 0)
(0.99561 0.219365 -1.70777e-22)
(0.876101 -0.127194 2.68892e-24)
(0.692581 0.207496 -1.64359e-24)
(0.584141 0.043957 -6.18896e-22)
(0.715746 -0.223848 2.91083e-23)
(0.895726 0.0445322 3.10332e-24)
(1.00486 -0.211139 -1.64373e-22)
(1.045 -0.143367 0)
(1.05137 -0.0936345 0)
(1.05225 -0.066114 0)
(1.04341 -0.0449002 0)
(1.04071 -0.033312 0)
(1.03758 -0.0251722 0)
(1.0346 -0.01925 0)
(1.03195 -0.0148392 0)
(1.02969 -0.0114875 0)
(1.02781 -0.0088889 0)
(1.02626 -0.0068304 0)
(1.02503 -0.00515994 0)
(1.02408 -0.00376629 0)
(1.02339 -0.00256548 0)
(1.02294 -0.00149144 0)
(1.02272 -0.000489367 0)
(1.02121 0.000619181 0)
(1.02137 0.00188303 0)
(1.02168 0.00322512 0)
(1.02215 0.00470378 0)
(1.02278 0.00638716 0)
(1.02356 0.00835843 0)
(1.02449 0.0107221 0)
(1.02554 0.0136113 0)
(1.02667 0.017195 0)
(1.02779 0.0216783 0)
(1.02873 0.027276 0)
(1.02923 0.0340872 0)
(1.02887 0.0416317 0)
(1.02528 0.0548494 0)
(1.02437 0.0721602 0)
(1.00424 0.0865834 0)
(0.990536 0.111437 0)
(0.949454 0.124203 0)
(0.891026 0.110552 3.76884e-25)
(0.83489 0.0684398 2.13089e-22)
(0.815046 -0.00818951 0)
(0.846882 -0.0840845 0)
(0.906524 -0.0834603 -3.71914e-37)
(0.961783 -0.122121 0)
(0.9989 -0.106702 0)
(1.02022 -0.081642 0)
(1.02649 -0.0639975 0)
(1.02887 -0.0416325 0)
(1.02923 -0.0340878 0)
(1.02873 -0.0272765 0)
(1.02779 -0.0216787 0)
(1.02667 -0.0171952 0)
(1.02554 -0.0136115 0)
(1.02449 -0.0107222 0)
(1.02356 -0.00835852 0)
(1.02278 -0.00638722 0)
(1.02215 -0.00470382 0)
(1.02168 -0.00322515 0)
(1.02137 -0.00188304 0)
(1.02121 -0.00061919 0)
(1.01941 0.00070186 0)
(1.0195 0.0021299 0)
(1.01967 0.0036322 0)
(1.01993 0.00526265 0)
(1.02024 0.00708197 0)
(1.02059 0.00916081 0)
(1.02095 0.0115833 0)
(1.02126 0.0144508 0)
(1.02141 0.017887 0)
(1.02129 0.022046 0)
(1.02069 0.0271361 0)
(1.01934 0.0335065 0)
(1.01697 0.0419814 0)
(1.0031 0.0474919 0)
(1.00752 0.053696 0)
(0.992287 0.0647928 0)
(0.975377 0.070997 0)
(0.950937 0.0719821 0)
(0.922957 0.0560338 0)
(0.900534 0.0322486 0)
(0.893354 -0.00447119 4.25484e-27)
(0.905044 -0.0403141 -2.39765e-23)
(0.929828 -0.0622699 0)
(0.957688 -0.0729278 0)
(0.982226 -0.067558 0)
(1.00052 -0.0601377 0)
(1.0031 -0.0474924 0)
(1.01697 -0.0419818 0)
(1.01934 -0.0335069 0)
(1.02069 -0.0271365 0)
(1.02129 -0.0220463 0)
(1.02141 -0.0178872 0)
(1.02126 -0.0144509 0)
(1.02095 -0.0115834 0)
(1.02059 -0.00916089 0)
(1.02024 -0.00708203 0)
(1.01993 -0.00526269 0)
(1.01967 -0.00363222 0)
(1.0195 -0.00212992 0)
(1.01941 -0.000701865 0)
(1.01745 0.000739557 0)
(1.01748 0.00223942 0)
(1.01753 0.00380224 0)
(1.01758 0.0054722 0)
(1.01763 0.00729677 0)
(1.01762 0.00932764 0)
(1.01751 0.0116213 0)
(1.01723 0.0142384 0)
(1.01668 0.017242 0)
(1.01568 0.0206915 0)
(1.01402 0.0246283 0)
(1.01136 0.0290334 0)
(1.00712 0.0336792 0)
(1.00019 0.0375579 0)
(0.995623 0.0417291 0)
(0.985956 0.045512 0)
(0.974658 0.0474343 0)
(0.959865 0.0442219 0)
(0.945543 0.0339937 0)
(0.935158 0.0175604 0)
(0.931999 -0.00258045 0)
(0.937181 -0.0221544 0)
(0.948903 -0.0371728 0)
(0.963627 -0.0457507 0)
(0.979887 -0.0460583 0)
(0.991275 -0.0440539 0)
(1.00019 -0.0375581 0)
(1.00712 -0.0336794 0)
(1.01136 -0.0290336 0)
(1.01402 -0.0246285 0)
(1.01568 -0.0206917 0)
(1.01668 -0.0172422 0)
(1.01724 -0.0142385 0)
(1.01751 -0.0116214 0)
(1.01762 -0.00932771 0)
(1.01763 -0.00729681 0)
(1.01758 -0.00547224 0)
(1.01753 -0.00380226 0)
(1.01748 -0.00223944 0)
(1.01745 -0.000739565 0)
(1.01544 0.000738866 0)
(1.01542 0.00223253 0)
(1.01537 0.00377409 0)
(1.01527 0.00539579 0)
(1.0151 0.00712999 0)
(1.01483 0.0090085 0)
(1.0144 0.0110609 0)
(1.01373 0.0133112 0)
(1.01274 0.0157723 0)
(1.0113 0.0184357 0)
(1.00922 0.0212543 0)
(1.00628 0.0241149 0)
(1.00223 0.0267959 0)
(0.996895 0.0289339 0)
(0.992517 0.0315533 0)
(0.985166 0.032682 0)
(0.977544 0.032421 0)
(0.968679 0.0286853 0)
(0.960799 0.0211034 0)
(0.955423 0.0105926 0)
(0.953835 -0.00154363 0)
(0.956451 -0.0134362 0)
(0.962595 -0.0233048 0)
(0.970855 -0.0300488 0)
(0.981123 -0.032198 0)
(0.988974 -0.0325263 0)
(0.996894 -0.0289339 0)
(1.00223 -0.026796 0)
(1.00628 -0.024115 0)
(1.00922 -0.0212544 0)
(1.0113 -0.0184358 0)
(1.01274 -0.0157724 0)
(1.01373 -0.0133113 0)
(1.0144 -0.0110609 0)
(1.01483 -0.00900854 0)
(1.0151 -0.00713003 0)
(1.01527 -0.00539581 0)
(1.01537 -0.0037741 0)
(1.01542 -0.00223254 0)
(1.01544 -0.000738869 0)
(1.01347 0.000708715 0)
(1.01341 0.00213703 0)
(1.01329 0.00359771 0)
(1.01308 0.00511129 0)
(1.01277 0.00669632 0)
(1.01233 0.00836776 0)
(1.0117 0.0101343 0)
(1.01084 0.0119942 0)
(1.00966 0.0139287 0)
(1.00809 0.0158926 0)
(1.006 0.0178027 0)
(1.00326 0.0195287 0)
(0.999711 0.020917 0)
(0.995094 0.0219532 0)
(0.991451 0.0236257 0)
(0.986292 0.0238658 0)
(0.981175 0.0229927 0)
(0.975874 0.0196745 0)
(0.971326 0.014024 0)
(0.968287 0.00689582 0)
(0.967402 -0.00099906 0)
(0.968863 -0.00878053 0)
(0.972354 -0.0155979 0)
(0.977147 -0.0207853 0)
(0.983556 -0.0231627 0)
(0.988912 -0.0241069 0)
(0.995094 -0.0219531 0)
(0.999711 -0.020917 0)
(1.00326 -0.0195287 0)
(1.006 -0.0178027 0)
(1.00809 -0.0158926 0)
(1.00966 -0.0139287 0)
(1.01084 -0.0119942 0)
(1.0117 -0.0101343 0)
(1.01233 -0.00836777 0)
(1.01277 -0.00669632 0)
(1.01308 -0.0051113 0)
(1.01329 -0.00359772 0)
(1.01341 -0.00213703 0)
(1.01347 -0.00070872 0)
(1.01161 0.000658434 0)
(1.01153 0.00198167 0)
(1.01136 0.0033235 0)
(1.01109 0.00469462 0)
(1.0107 0.00610281 0)
(1.01016 0.0075511 0)
(1.00945 0.00903511 0)
(1.00852 0.0105392 0)
(1.00732 0.0120305 0)
(1.00582 0.0134493 0)
(1.00397 0.0146914 0)
(1.00175 0.015567 0)
(0.99917 0.0156897 0)
(0.996355 0.0141247 0)
(0.988788 0.0177242 0)
(0.989003 0.0177507 0)
(0.981609 0.0172308 0)
(0.98206 0.0144277 0)
(0.978935 0.00975098 0)
(0.976963 0.00470802 0)
(0.97641 -0.000679602 5.23546e-37)
(0.977342 -0.00601375 0)
(0.979651 -0.0109346 0)
(0.982941 -0.0156679 0)
(0.987837 -0.0148888 0)
(0.989946 -0.0190274 0)
(0.996354 -0.0141245 0)
(0.99917 -0.0156896 0)
(1.00175 -0.0155669 0)
(1.00397 -0.0146913 0)
(1.00582 -0.0134493 0)
(1.00732 -0.0120304 0)
(1.00852 -0.0105392 0)
(1.00945 -0.0090351 0)
(1.01016 -0.00755108 0)
(1.0107 -0.0061028 0)
(1.01109 -0.00469462 0)
(1.01136 -0.0033235 0)
(1.01153 -0.00198167 0)
(1.01161 -0.000658434 0)
(1.00991 0.000596383 0)
(1.00981 0.0017919 0)
(1.00962 0.00299512 0)
(1.00931 0.00420939 0)
(1.00889 0.00543513 0)
(1.00832 0.00666835 0)
(1.00759 0.0078988 0)
(1.00668 0.00910785 0)
(1.00556 0.0102663 0)
(1.00421 0.011333 0)
(1.00264 0.0122577 0)
(1.00088 0.012998 0)
(0.999071 0.0135838 0)
(0.997539 0.0143507 0)
(0.988432 0.0103577 0)
(0.989316 0.0114146 0)
(0.987748 0.0121759 0)
(0.9865 0.00897892 0)
(0.984579 0.00600643 0)
(0.983403 0.00265263 0)
(0.983167 -0.00089063 -6.86116e-37)
(0.983896 -0.00436952 0)
(0.985506 -0.00754714 0)
(0.987522 -0.0103825 0)
(0.989778 -0.0133869 0)
(0.988432 -0.0103574 0)
(0.997539 -0.0143505 0)
(0.999071 -0.0135837 0)
(1.00088 -0.0129979 0)
(1.00264 -0.0122576 0)
(1.00421 -0.0113329 0)
(1.00556 -0.0102662 0)
(1.00668 -0.0091078 0)
(1.00759 -0.00789877 0)
(1.00832 -0.00666832 0)
(1.00889 -0.00543511 0)
(1.00931 -0.00420938 0)
(1.00962 -0.00299512 0)
(1.00981 -0.00179189 0)
(1.00991 -0.000596383 0)
(1.00838 0.000529251 0)
(1.00828 0.00158786 0)
(1.00808 0.00264632 0)
(1.00777 0.00370294 0)
(1.00734 0.00475362 0)
(1.00678 0.00579072 0)
(1.00608 0.00680209 0)
(1.00523 0.00777016 0)
(1.00421 0.00867168 0)
(1.00301 0.00947914 0)
(1.00165 0.0101654 0)
(1.00012 0.0107147 0)
(0.998452 0.0111433 0)
(0.996605 0.0115181 0)
(0.994298 0.0118845 0)
(0.986227 0.00863408 0)
(0.991422 0.0053205 0)
(0.989636 0.00477241 0)
(0.988507 0.00314113 0)
(0.987932 0.00108765 3.94303e-34)
(0.987932 -0.00108723 -6.70058e-36)
(0.988507 -0.00314072 0)
(0.989636 -0.00477201 0)
(0.991422 -0.00532014 0)
(0.986227 -0.00863374 0)
(0.994298 -0.0118842 0)
(0.996605 -0.0115179 0)
(0.998452 -0.0111431 0)
(1.00012 -0.0107146 0)
(1.00165 -0.0101652 0)
(1.00301 -0.00947904 0)
(1.00421 -0.0086716 0)
(1.00523 -0.00777009 0)
(1.00608 -0.00680204 0)
(1.00678 -0.00579068 0)
(1.00734 -0.00475359 0)
(1.00777 -0.00370292 0)
(1.00808 -0.00264631 0)
(1.00828 -0.00158785 0)
(1.00838 -0.000529246 0)
(1.00703 0.000461923 0)
(1.00693 0.0013841 0)
(1.00674 0.00230091 0)
(1.00644 0.00320751 0)
(1.00603 0.0040972 0)
(1.00551 0.00496068 0)
(1.00486 0.00578548 0)
(1.00409 0.00655552 0)
(1.00318 0.00725111 0)
(1.00213 0.00784955 0)
(1.00095 0.00832621 0)
(0.999627 0.0086548 0)
(0.998164 0.00880198 0)
(0.996521 0.00870139 0)
(0.994604 0.00817221 0)
(0.992295 0.00673641 0)
(0.992112 0.00508101 0)
(0.991445 0.00379172 0)
(0.990846 0.0023729 0)
(0.990512 0.000809355 3.66767e-35)
(0.990512 -0.000808954 -6.23196e-37)
(0.990846 -0.0023725 0)
(0.991444 -0.00379134 0)
(0.992112 -0.00508064 0)
(0.992295 -0.00673607 0)
(0.994604 -0.0081719 0)
(0.996521 -0.00870112 0)
(0.998164 -0.00880177 0)
(0.999627 -0.00865462 0)
(1.00095 -0.00832606 0)
(1.00213 -0.00784943 0)
(1.00318 -0.007251 0)
(1.00409 -0.00655543 0)
(1.00486 -0.00578541 0)
(1.00551 -0.00496063 0)
(1.00603 -0.00409716 0)
(1.00644 -0.00320748 0)
(1.00674 -0.00230089 0)
(1.00693 -0.00138408 0)
(1.00703 -0.000461914 0)
(1.00586 0.000397675 0)
(1.00577 0.00119028 0)
(1.00559 0.00197438 0)
(1.00531 0.00274335 0)
(1.00493 0.00348924 0)
(1.00446 0.0042022 0)
(1.00388 0.00487017 0)
(1.00319 0.00547858 0)
(1.0024 0.00601021 0)
(1.0015 0.00644524 0)
(1.0005 0.00676094 0)
(0.999398 0.00693043 0)
(0.998208 0.00691903 0)
(0.996942 0.00667731 0)
(0.995638 0.00613686 0)
(0.994427 0.00524489 0)
(0.993701 0.00416433 0)
(0.993124 0.00305062 0)
(0.992699 0.00187232 0)
(0.992472 0.000632362 0)
(0.992472 -0.000631968 0)
(0.992699 -0.00187194 0)
(0.993124 -0.00305024 0)
(0.993701 -0.00416397 0)
(0.994427 -0.00524454 0)
(0.995638 -0.00613654 0)
(0.996942 -0.00667703 0)
(0.998208 -0.00691879 0)
(0.999398 -0.00693022 0)
(1.0005 -0.00676076 0)
(1.0015 -0.00644509 0)
(1.0024 -0.00601008 0)
(1.00319 -0.00547846 0)
(1.00388 -0.00487008 0)
(1.00446 -0.00420213 0)
(1.00493 -0.00348918 0)
(1.00531 -0.00274332 0)
(1.00559 -0.00197435 0)
(1.00577 -0.00119026 0)
(1.00586 -0.000397666 0)
(1.00486 0.000338502 0)
(1.00478 0.0010122 0)
(1.00461 0.00167581 0)
(1.00436 0.00232191 0)
(1.00403 0.00294216 0)
(1.0036 0.00352693 0)
(1.0031 0.00406504 0)
(1.0025 0.00454362 0)
(1.00182 0.004948 0)
(1.00106 0.00526166 0)
(1.00023 0.00546611 0)
(0.999335 0.00554065 0)
(0.998394 0.00546209 0)
(0.997434 0.00520578 0)
(0.996499 0.00475168 0)
(0.995662 0.00410215 0)
(0.995014 0.00330899 0)
(0.994523 0.00242895 0)
(0.994185 0.00148581 0)
(0.994012 0.000500441 0)
(0.994012 -0.000500046 0)
(0.994185 -0.00148542 0)
(0.994523 -0.00242856 0)
(0.995014 -0.00330862 0)
(0.995663 -0.00410179 0)
(0.996499 -0.00475134 0)
(0.997434 -0.00520547 0)
(0.998394 -0.00546181 0)
(0.999335 -0.00554041 0)
(1.00023 -0.0054659 0)
(1.00106 -0.00526147 0)
(1.00182 -0.00494784 0)
(1.0025 -0.00454348 0)
(1.0031 -0.00406492 0)
(1.0036 -0.00352684 0)
(1.00403 -0.00294209 0)
(1.00436 -0.00232186 0)
(1.00461 -0.00167577 0)
(1.00478 -0.00101218 0)
(1.00486 -0.000338493 0)
(1.00401 0.000285433 0)
(1.00394 0.000852813 0)
(1.00379 0.0014096 0)
(1.00357 0.00194828 0)
(1.00328 0.00246073 0)
(1.00291 0.00293795 0)
(1.00247 0.00337001 0)
(1.00196 0.00374591 0)
(1.00139 0.00405359 0)
(1.00076 0.00428006 0)
(1.00008 0.00441158 0)
(0.999356 0.00443405 0)
(0.998616 0.00433389 0)
(0.997879 0.00410008 0)
(0.997178 0.00372795 0)
(0.996551 0.00322505 0)
(0.996034 0.00261436 0)
(0.995638 0.00192397 0)
(0.995368 0.0011774 0)
(0.995231 0.000396486 3.59344e-35)
(0.995231 -0.000396082 -6.10261e-37)
(0.995368 -0.00117699 0)
(0.995638 -0.00192358 0)
(0.996034 -0.00261398 0)
(0.996551 -0.00322468 0)
(0.997178 -0.0037276 0)
(0.997879 -0.00409975 0)
(0.998616 -0.0043336 0)
(0.999356 -0.00443378 0)
(1.00008 -0.00441134 0)
(1.00076 -0.00427985 0)
(1.00139 -0.0040534 0)
(1.00196 -0.00374574 0)
(1.00247 -0.00336987 0)
(1.00291 -0.00293784 0)
(1.00328 -0.00246064 0)
(1.00357 -0.00194822 0)
(1.00379 -0.00140955 0)
(1.00394 -0.000852785 0)
(1.00401 -0.000285424 0)
(1.0033 0.000238813 0)
(1.00323 0.000713017 0)
(1.0031 0.00117687 0)
(1.00291 0.00162319 0)
(1.00266 0.00204443 0)
(1.00235 0.00243252 0)
(1.00197 0.00277888 0)
(1.00155 0.00307436 0)
(1.00107 0.00330938 0)
(1.00055 0.0034741 0)
(0.999993 0.00355876 0)
(0.999415 0.00355423 0)
(0.99883 0.00345294 0)
(0.998258 0.00325019 0)
(0.997718 0.00294609 0)
(0.997237 0.00254729 0)
(0.996832 0.00206717 0)
(0.996519 0.00152291 0)
(0.996305 0.000932483 0)
(0.996197 0.000314097 0)
(0.996197 -0.000313676 0)
(0.996305 -0.000932066 0)
(0.996519 -0.0015225 0)
(0.996832 -0.00206677 0)
(0.997237 -0.00254691 0)
(0.997719 -0.00294573 0)
(0.998258 -0.00324984 0)
(0.998831 -0.00345262 0)
(0.999415 -0.00355394 0)
(0.999993 -0.00355849 0)
(1.00055 -0.00347385 0)
(1.00107 -0.00330916 0)
(1.00155 -0.00307417 0)
(1.00197 -0.00277871 0)
(1.00235 -0.00243239 0)
(1.00266 -0.00204432 0)
(1.00291 -0.00162311 0)
(1.00311 -0.00117681 0)
(1.00323 -0.000712984 0)
(1.0033 -0.000238802 0)
(1.0027 0.000198524 0)
(1.00265 0.00059237 0)
(1.00254 0.000976559 0)
(1.00237 0.00134451 0)
(1.00216 0.00168942 0)
(1.00189 0.00200429 0)
(1.00158 0.00228184 0)
(1.00122 0.00251463 0)
(1.00083 0.00269519 0)
(1.0004 0.00281621 0)
(0.99995 0.00287089 0)
(0.999487 0.00285342 0)
(0.999024 0.00275962 0)
(0.998574 0.00258776 0)
(0.998153 0.0023394 0)
(0.997778 0.00201995 0)
(0.997462 0.0016386 0)
(0.997216 0.00120723 0)
(0.997048 0.000739286 0)
(0.996962 0.00024907 0)
(0.996962 -0.000248627 0)
(0.997048 -0.000738846 0)
(0.997216 -0.0012068 0)
(0.997462 -0.00163818 0)
(0.997778 -0.00201955 0)
(0.998154 -0.00233901 0)
(0.998574 -0.00258739 0)
(0.999024 -0.00275927 0)
(0.999487 -0.00285309 0)
(0.999951 -0.00287059 0)
(1.0004 -0.00281594 0)
(1.00083 -0.00269495 0)
(1.00122 -0.00251442 0)
(1.00158 -0.00228165 0)
(1.00189 -0.00200413 0)
(1.00216 -0.0016893 0)
(1.00237 -0.00134441 0)
(1.00254 -0.000976491 0)
(1.00265 -0.00059233 0)
(1.0027 -0.000198511 0)
(1.00221 0.000164161 0)
(1.00216 0.000489583 0)
(1.00207 0.000806291 0)
(1.00193 0.00110841 0)
(1.00175 0.00139001 0)
(1.00153 0.00164508 0)
(1.00127 0.00186757 0)
(1.00097 0.00205152 0)
(1.00065 0.00219113 0)
(1.0003 0.00228102 0)
(0.999932 0.00231647 0)
(0.99956 0.00229377 0)
(0.999191 0.00221068 0)
(0.998836 0.00206683 0)
(0.998505 0.00186417 0)
(0.998211 0.00160713 0)
(0.997963 0.00130254 0)
(0.997769 0.000959199 0)
(0.997637 0.000587283 0)
(0.997569 0.00019788 0)
(0.997569 -0.000197408 0)
(0.997637 -0.000586814 0)
(0.997769 -0.000958737 0)
(0.997963 -0.00130209 0)
(0.998211 -0.00160669 0)
(0.998505 -0.00186375 0)
(0.998836 -0.00206643 0)
(0.999191 -0.0022103 0)
(0.99956 -0.00229342 0)
(0.999932 -0.00231614 0)
(1.0003 -0.00228073 0)
(1.00065 -0.00219087 0)
(1.00097 -0.00205128 0)
(1.00127 -0.00186737 0)
(1.00153 -0.0016449 0)
(1.00175 -0.00138987 0)
(1.00193 -0.0011083 0)
(1.00207 -0.000806212 0)
(1.00216 -0.000489537 0)
(1.00221 -0.000164145 0)
(1.0018 0.000135158 0)
(1.00176 0.000402916 0)
(1.00168 0.000662998 0)
(1.00157 0.000910286 0)
(1.00142 0.00113968 0)
(1.00123 0.0013461 0)
(1.00102 0.0015246 0)
(1.00077 0.00167041 0)
(1.00051 0.00177905 0)
(1.00022 0.00184654 0)
(0.999927 0.00186959 0)
(0.999628 0.00184584 0)
(0.999334 0.00177411 0)
(0.999051 0.00165469 0)
(0.99879 0.00148952 0)
(0.998558 0.00128224 0)
(0.998362 0.00103816 0)
(0.99821 0.000764017 0)
(0.998105 0.000467622 0)
(0.998052 0.000157577 0)
(0.998052 -0.00015707 0)
(0.998105 -0.000467118 0)
(0.99821 -0.00076352 0)
(0.998362 -0.00103768 0)
(0.998558 -0.00128177 0)
(0.99879 -0.00148906 0)
(0.999051 -0.00165426 0)
(0.999334 -0.0017737 0)
(0.999629 -0.00184545 0)
(0.999927 -0.00186923 0)
(1.00022 -0.00184621 0)
(1.00051 -0.00177875 0)
(1.00077 -0.00167014 0)
(1.00102 -0.00152438 0)
(1.00123 -0.00134591 0)